<?xml version="1.0" encoding="UTF-8"?>

<!-- generated on 2025-12-03 12:11:54 by Eclipse SUMO GUI Version 1.24.0
<sumoConfiguration xmlns:xsi="http://www.w3.org/2001/XMLSchema-instance" xsi:noNamespaceSchemaLocation="http://sumo.dlr.de/xsd/sumoConfiguration.xsd">

    <input>
        <net-file value="ourproject/SumoConfig/fkk_in/ingolstadt.net.xml.gz"/>
        <route-files value="ourproject/SumoConfig/fkk_in/fkk_in.rou.xml"/>
        <additional-files value="ourproject/SumoConfig/fkk_in/fkk_in.tls.add.xml,ourproject/SumoConfig/input_additional.add.xml"/>
    </input>

    <time>
        <begin value="0"/>
        <end value="180"/>
        <step-length value=".2"/>
    </time>

    <report>
        <xml-validation value="never"/>
    </report>

    <traci_server>
        <remote-port value="51290"/>
    </traci_server>

    <gui_only>
        <gui-settings-file value="ourproject/SumoConfig/fkk_in/fkk_in.settings.xml"/>
        <start value="true"/>
    </gui_only>

</sumoConfiguration>
-->

<meandata xmlns:xsi="http://www.w3.org/2001/XMLSchema-instance" xsi:noNamespaceSchemaLocation="http://sumo.dlr.de/xsd/meandata_file.xsd">
    <interval begin="0.00" end="2.80" id="dump">
        <edge id="148050455#0" sampledSeconds="2.60" traveltime="9.97" overlapTraveltime="10.63" density="12.32" laneDensity="12.32" occupancy="6.16" waitingTime="0.00" timeLoss="0.04" speed="7.56" speedRelative="0.91" departed="1" arrived="0" entered="0" left="0" laneChangedFrom="0" laneChangedTo="0"/>
        <edge id="29119850" sampledSeconds="6.12" traveltime="2.41" overlapTraveltime="2.65" density="94.00" laneDensity="31.33" occupancy="10.20" waitingTime="0.00" timeLoss="0.18" speed="10.11" speedRelative="0.73" departed="3" arrived="0" entered="0" left="2" laneChangedFrom="1" laneChangedTo="1"/>
        <edge id="29119850.76" sampledSeconds="0.74" traveltime="3.57" overlapTraveltime="3.92" density="5.15" laneDensity="1.29" occupancy="0.49" waitingTime="0.00" timeLoss="0.01" speed="14.41" speedRelative="1.04" departed="0" arrived="0" entered="1" left="0" laneChangedFrom="0" laneChangedTo="0"/>
        <edge id="30399663#0" sampledSeconds="1.48" traveltime="0.75" overlapTraveltime="1.11" density="51.77" laneDensity="17.26" occupancy="6.51" waitingTime="0.00" timeLoss="0.02" speed="13.66" speedRelative="0.98" departed="2" arrived="0" entered="0" left="2" laneChangedFrom="1" laneChangedTo="1"/>
        <edge id="30399663#1" sampledSeconds="2.24" traveltime="3.55" overlapTraveltime="3.89" density="15.55" laneDensity="3.89" occupancy="1.63" waitingTime="0.00" timeLoss="0.02" speed="14.50" speedRelative="1.04" departed="0" arrived="0" entered="2" left="0" laneChangedFrom="0" laneChangedTo="0"/>
        <edge id="737320747#4" sampledSeconds="6.40" traveltime="8.23" overlapTraveltime="8.56" density="18.35" laneDensity="6.12" occupancy="3.06" waitingTime="0.00" timeLoss="0.12" speed="15.13" speedRelative="1.09" departed="3" arrived="0" entered="0" left="0" laneChangedFrom="1" laneChangedTo="1"/>
    </interval>
    <interval begin="0.00" end="2.80" id="hbefa">
        <edge id="148050455#0" sampledSeconds="2.60" CO_abs="6.12" CO2_abs="3995.26" HC_abs="0.04" PMx_abs="0.42" NOx_abs="1.43" fuel_abs="1295.23" electricity_abs="0.00"
            CO_normed="104.34" CO2_normed="68135.78" HC_normed="0.70" PMx_normed="7.14" NOx_normed="24.36" fuel_normed="22089.01" electricity_normed="0.00"
            traveltime="9.97" CO_perVeh="23.45" CO2_perVeh="15314.19" HC_perVeh="0.16" PMx_perVeh="1.60" NOx_perVeh="5.48" fuel_perVeh="4964.72" electricity_perVeh="0.00"/>
        <edge id="29119850" sampledSeconds="5.39" CO_abs="80.27" CO2_abs="10696.73" HC_abs="0.53" PMx_abs="0.82" NOx_abs="3.68" fuel_abs="3467.72" electricity_abs="0.00"
            CO_normed="4435.13" CO2_normed="591015.71" HC_normed="29.38" PMx_normed="45.17" NOx_normed="203.50" fuel_normed="191598.33" electricity_normed="0.00"
            traveltime="2.41" CO_perVeh="35.97" CO2_perVeh="4792.78" HC_perVeh="0.24" PMx_perVeh="0.37" NOx_perVeh="1.65" fuel_perVeh="1553.75" electricity_perVeh="0.00"/>
        <edge id="29119850.76" sampledSeconds="0.74" CO_abs="11.75" CO2_abs="1993.19" HC_abs="0.08" PMx_abs="0.32" NOx_abs="0.73" fuel_abs="646.17" electricity_abs="0.00"
            CO_normed="293.77" CO2_normed="49818.59" HC_normed="2.00" PMx_normed="7.96" NOx_normed="18.27" fuel_normed="16150.67" electricity_normed="0.00"
            traveltime="3.57" CO_perVeh="56.53" CO2_perVeh="9586.75" HC_perVeh="0.38" PMx_perVeh="1.53" NOx_perVeh="3.52" fuel_perVeh="3107.92" electricity_perVeh="0.00"/>
        <edge id="30399663#0" sampledSeconds="0.75" CO_abs="16.90" CO2_abs="2116.82" HC_abs="0.11" PMx_abs="0.16" NOx_abs="0.74" fuel_abs="686.24" electricity_abs="0.00"
            CO_normed="2128.33" CO2_normed="266565.00" HC_normed="14.11" PMx_normed="20.71" NOx_normed="92.99" fuel_normed="86416.30" electricity_normed="0.00"
            traveltime="0.75" CO_perVeh="16.88" CO2_perVeh="2114.75" HC_perVeh="0.11" PMx_perVeh="0.16" NOx_perVeh="0.74" fuel_perVeh="685.57" electricity_perVeh="0.00"/>
        <edge id="30399663#1" sampledSeconds="2.24" CO_abs="32.39" CO2_abs="4684.58" HC_abs="0.22" PMx_abs="0.66" NOx_abs="1.72" fuel_abs="1518.68" electricity_abs="0.00"
            CO_normed="810.17" CO2_normed="117156.76" HC_normed="5.46" PMx_normed="16.41" NOx_normed="43.05" fuel_normed="37980.83" electricity_normed="0.00"
            traveltime="3.55" CO_perVeh="51.31" CO2_perVeh="7420.54" HC_perVeh="0.35" PMx_perVeh="1.04" NOx_perVeh="2.73" fuel_perVeh="2405.65" electricity_perVeh="0.00"/>
        <edge id="737320747#4" sampledSeconds="6.40" CO_abs="146.95" CO2_abs="19069.77" HC_abs="0.99" PMx_abs="2.45" NOx_abs="6.99" fuel_abs="6182.18" electricity_abs="0.00"
            CO_normed="1516.78" CO2_normed="196839.06" HC_normed="10.17" PMx_normed="25.34" NOx_normed="72.20" fuel_normed="63812.71" electricity_normed="0.00"
            traveltime="8.23" CO_perVeh="189.00" CO2_perVeh="24526.81" HC_perVeh="1.27" PMx_perVeh="3.16" NOx_perVeh="9.00" fuel_perVeh="7951.28" electricity_perVeh="0.00"/>
    </interval>
</meandata>
