<?xml version="1.0" encoding="UTF-8"?>

<!-- generated on 2025-12-14 20:06:02 by Eclipse SUMO GUI Version 1.24.0
<sumoConfiguration xmlns:xsi="http://www.w3.org/2001/XMLSchema-instance" xsi:noNamespaceSchemaLocation="http://sumo.dlr.de/xsd/sumoConfiguration.xsd">

    <input>
        <net-file value="SumoConfig/osm.net.xml.gz"/>
        <route-files value="SumoConfig/osm.passenger.trips.xml"/>
        <additional-files value="SumoConfig/osm.poly.xml.gz,SumoConfig/output.add.xml"/>
    </input>

    <output>
        <tripinfo-output value="SumoConfig/tripinfos.xml"/>
        <statistic-output value="SumoConfig/stats.xml"/>
    </output>

    <processing>
        <ignore-route-errors value="true"/>
        <tls.actuated.jam-threshold value="30"/>
    </processing>

    <routing>
        <device.rerouting.adaptation-steps value="18"/>
        <device.rerouting.adaptation-interval value="10"/>
    </routing>

    <report>
        <verbose value="true"/>
        <duration-log.statistics value="true"/>
        <no-step-log value="true"/>
    </report>

    <traci_server>
        <remote-port value="62935"/>
    </traci_server>

    <gui_only>
        <gui-settings-file value="SumoConfig/osm.view.xml"/>
        <start value="true"/>
    </gui_only>

</sumoConfiguration>
-->

<meandata xmlns:xsi="http://www.w3.org/2001/XMLSchema-instance" xsi:noNamespaceSchemaLocation="http://sumo.dlr.de/xsd/meandata_file.xsd">
    <interval begin="0.00" end="25.00" id="wizard_example">
        <edge id="-23490810#0" sampledSeconds="10.63" traveltime="9.81" overlapTraveltime="10.63" density="5.37" laneDensity="5.37" occupancy="2.51" waitingTime="0.00" timeLoss="0.85" speed="7.91" speedRelative="0.95" departed="0" arrived="0" entered="1" left="1" laneChangedFrom="0" laneChangedTo="0"/>
        <edge id="-23490810#1" sampledSeconds="23.27" traveltime="7.60" overlapTraveltime="8.20" density="16.07" laneDensity="16.07" occupancy="7.58" waitingTime="0.00" timeLoss="5.00" speed="7.67" speedRelative="0.92" departed="2" arrived="0" entered="1" left="3" laneChangedFrom="0" laneChangedTo="0"/>
        <edge id="-28378604" sampledSeconds="0.00" departed="0" arrived="0" entered="0" left="0" laneChangedFrom="0" laneChangedTo="0"/>
        <edge id="-317948763" sampledSeconds="10.93" traveltime="6.77" overlapTraveltime="7.24" density="5.80" laneDensity="5.80" occupancy="2.70" waitingTime="0.00" timeLoss="0.74" speed="11.10" speedRelative="1.33" departed="2" arrived="0" entered="1" left="1" laneChangedFrom="0" laneChangedTo="0"/>
        <edge id="-495683152" sampledSeconds="0.00" departed="0" arrived="0" entered="0" left="0" laneChangedFrom="0" laneChangedTo="0"/>
        <edge id="-5218604" sampledSeconds="19.75" traveltime="39.60" overlapTraveltime="42.64" density="12.13" laneDensity="12.13" occupancy="5.99" waitingTime="0.00" timeLoss="17.59" speed="1.64" speedRelative="0.20" departed="0" arrived="0" entered="1" left="0" laneChangedFrom="0" laneChangedTo="0"/>
        <edge id="23490810#0" sampledSeconds="0.00" departed="0" arrived="0" entered="0" left="0" laneChangedFrom="0" laneChangedTo="0"/>
        <edge id="23490810#1" sampledSeconds="5.11" traveltime="4.33" overlapTraveltime="5.11" density="3.62" laneDensity="3.62" occupancy="1.61" waitingTime="0.00" timeLoss="0.45" speed="12.04" speedRelative="1.45" departed="1" arrived="0" entered="0" left="1" laneChangedFrom="0" laneChangedTo="0"/>
        <edge id="28378604" sampledSeconds="6.92" traveltime="7.45" overlapTraveltime="7.84" density="2.89" laneDensity="2.89" occupancy="1.39" waitingTime="0.00" timeLoss="0.99" speed="12.85" speedRelative="1.54" departed="0" arrived="0" entered="1" left="0" laneChangedFrom="0" laneChangedTo="0"/>
        <edge id="317948763" sampledSeconds="0.00" departed="0" arrived="0" entered="0" left="0" laneChangedFrom="0" laneChangedTo="0"/>
        <edge id="495683152" sampledSeconds="6.87" traveltime="3.55" overlapTraveltime="4.03" density="8.22" laneDensity="8.22" occupancy="3.87" waitingTime="0.00" timeLoss="0.43" speed="9.54" speedRelative="1.15" departed="2" arrived="0" entered="0" left="1" laneChangedFrom="0" laneChangedTo="0"/>
        <edge id="5218604" sampledSeconds="14.05" traveltime="7.38" overlapTraveltime="7.95" density="8.66" laneDensity="8.66" occupancy="4.11" waitingTime="0.00" timeLoss="5.57" speed="8.80" speedRelative="1.06" departed="1" arrived="0" entered="2" left="0" laneChangedFrom="0" laneChangedTo="0"/>
    </interval>
</meandata>
