<?xml version="1.0" encoding="UTF-8"?>

<!-- generated on 2025-12-14T16:22:18.451444+01:00 by Eclipse SUMO GUI 1.25.0
<sumoConfiguration xmlns:xsi="http://www.w3.org/2001/XMLSchema-instance" xsi:noNamespaceSchemaLocation="http://sumo.dlr.de/xsd/sumoConfiguration.xsd">

    <input>
        <net-file value="SumoConfig/osm.net.xml.gz"/>
        <route-files value="SumoConfig/osm.passenger.trips.xml"/>
        <additional-files value="SumoConfig/osm.poly.xml.gz,SumoConfig/output.add.xml"/>
    </input>

    <output>
        <tripinfo-output value="SumoConfig/tripinfos.xml"/>
        <statistic-output value="SumoConfig/stats.xml"/>
    </output>

    <processing>
        <ignore-route-errors value="true"/>
        <tls.actuated.jam-threshold value="30"/>
    </processing>

    <routing>
        <device.rerouting.adaptation-steps value="18"/>
        <device.rerouting.adaptation-interval value="10"/>
    </routing>

    <report>
        <verbose value="true"/>
        <duration-log.statistics value="true"/>
        <no-step-log value="true"/>
    </report>

    <traci_server>
        <remote-port value="57907"/>
    </traci_server>

    <gui_only>
        <gui-settings-file value="SumoConfig/osm.view.xml"/>
        <start value="true"/>
    </gui_only>

</sumoConfiguration>
-->

<meandata xmlns:xsi="http://www.w3.org/2001/XMLSchema-instance" xsi:noNamespaceSchemaLocation="http://sumo.dlr.de/xsd/meandata_file.xsd">
    <interval begin="0.00" end="439.00" id="wizard_example">
        <edge id="-23490810#0" sampledSeconds="248.42" traveltime="77.72" overlapTraveltime="82.81" density="6.71" overlapDensity="7.15" laneDensity="6.71" occupancy="3.39" waitingTime="0.00" timeLoss="218.82" speed="1.02" speedRelative="0.12" departed="0" arrived="0" entered="3" left="3" laneChangedFrom="0" laneChangedTo="0" flow="24.55"/>
        <edge id="-23490810#1" sampledSeconds="43.24" traveltime="11.96" overlapTraveltime="15.68" density="1.29" overlapDensity="1.70" laneDensity="1.29" occupancy="0.76" waitingTime="1.00" timeLoss="22.83" speed="4.01" speedRelative="0.48" departed="3" arrived="0" entered="0" left="3" laneChangedFrom="0" laneChangedTo="0" flow="18.58"/>
        <edge id="-28378604" sampledSeconds="15.28" traveltime="13.77" overlapTraveltime="15.28" density="0.33" overlapDensity="0.37" laneDensity="0.33" occupancy="0.17" waitingTime="0.00" timeLoss="2.04" speed="6.56" speedRelative="0.79" departed="0" arrived="0" entered="1" left="1" laneChangedFrom="0" laneChangedTo="0" flow="7.78"/>
        <edge id="-317948763" sampledSeconds="240.71" traveltime="75.25" overlapTraveltime="80.24" density="6.82" overlapDensity="7.27" laneDensity="6.82" occupancy="3.41" waitingTime="0.00" timeLoss="212.49" speed="1.00" speedRelative="0.12" departed="0" arrived="0" entered="3" left="3" laneChangedFrom="0" laneChangedTo="0" flow="24.60"/>
        <edge id="-495683152" sampledSeconds="0.00" departed="0" arrived="0" entered="0" left="0" laneChangedFrom="0" laneChangedTo="0"/>
        <edge id="-5218604" sampledSeconds="223.86" traveltime="51.89" overlapTraveltime="55.97" density="7.26" overlapDensity="7.83" laneDensity="7.26" occupancy="3.63" waitingTime="2.00" timeLoss="190.95" speed="1.25" speedRelative="0.15" departed="0" arrived="0" entered="4" left="4" laneChangedFrom="0" laneChangedTo="0" flow="32.75"/>
        <edge id="23490810#0" sampledSeconds="12.82" traveltime="12.17" overlapTraveltime="12.82" density="0.35" overlapDensity="0.37" laneDensity="0.35" occupancy="0.17" waitingTime="0.00" timeLoss="2.02" speed="6.59" speedRelative="0.79" departed="0" arrived="0" entered="1" left="1" laneChangedFrom="0" laneChangedTo="0" flow="8.27"/>
        <edge id="23490810#1" sampledSeconds="156.24" traveltime="42.14" overlapTraveltime="45.86" density="6.28" overlapDensity="6.30" laneDensity="6.28" occupancy="2.99" waitingTime="0.00" timeLoss="131.56" speed="1.34" speedRelative="0.16" departed="0" arrived="2" entered="4" left="0" laneChangedFrom="0" laneChangedTo="0" flow="30.35"/>
        <edge id="28378604" sampledSeconds="301.67" traveltime="95.83" overlapTraveltime="100.56" density="6.84" overlapDensity="7.18" laneDensity="6.84" occupancy="3.41" waitingTime="0.00" timeLoss="267.07" speed="1.00" speedRelative="0.12" departed="0" arrived="0" entered="3" left="3" laneChangedFrom="0" laneChangedTo="0" flow="24.67"/>
        <edge id="317948763" sampledSeconds="12.84" traveltime="11.15" overlapTraveltime="12.84" density="0.34" overlapDensity="0.39" laneDensity="0.34" occupancy="0.17" waitingTime="0.00" timeLoss="2.11" speed="6.26" speedRelative="0.75" departed="0" arrived="0" entered="1" left="1" laneChangedFrom="0" laneChangedTo="0" flow="7.59"/>
        <edge id="495683152" sampledSeconds="4.73" traveltime="4.52" overlapTraveltime="5.46" density="0.26" overlapDensity="0.32" laneDensity="0.26" occupancy="0.15" waitingTime="0.00" timeLoss="0.41" speed="7.04" speedRelative="0.85" departed="1" arrived="0" entered="0" left="1" laneChangedFrom="0" laneChangedTo="0" flow="6.62"/>
        <edge id="5218604" sampledSeconds="16.76" traveltime="15.41" overlapTraveltime="16.76" density="0.54" overlapDensity="0.59" laneDensity="0.54" occupancy="0.28" waitingTime="3.00" timeLoss="7.61" speed="4.17" speedRelative="0.50" departed="0" arrived="0" entered="1" left="1" laneChangedFrom="0" laneChangedTo="0" flow="8.12"/>
    </interval>
</meandata>
