<?xml version="1.0" encoding="UTF-8"?>

<!-- generated on 2025-12-13T19:57:31.522916+01:00 by Eclipse SUMO GUI 1.25.0
<sumoConfiguration xmlns:xsi="http://www.w3.org/2001/XMLSchema-instance" xsi:noNamespaceSchemaLocation="http://sumo.dlr.de/xsd/sumoConfiguration.xsd">

    <input>
        <net-file value="SumoConfig/osm.net.xml.gz"/>
        <route-files value="SumoConfig/osm.passenger.trips.xml"/>
        <additional-files value="SumoConfig/osm.poly.xml.gz,SumoConfig/output.add.xml"/>
    </input>

    <output>
        <tripinfo-output value="SumoConfig/tripinfos.xml"/>
        <statistic-output value="SumoConfig/stats.xml"/>
    </output>

    <processing>
        <ignore-route-errors value="true"/>
        <tls.actuated.jam-threshold value="30"/>
    </processing>

    <routing>
        <device.rerouting.adaptation-steps value="18"/>
        <device.rerouting.adaptation-interval value="10"/>
    </routing>

    <report>
        <verbose value="true"/>
        <duration-log.statistics value="true"/>
        <no-step-log value="true"/>
    </report>

    <traci_server>
        <remote-port value="49996"/>
    </traci_server>

    <gui_only>
        <gui-settings-file value="SumoConfig/osm.view.xml"/>
        <start value="true"/>
    </gui_only>

</sumoConfiguration>
-->

<tripinfos xmlns:xsi="http://www.w3.org/2001/XMLSchema-instance" xsi:noNamespaceSchemaLocation="http://sumo.dlr.de/xsd/tripinfo_file.xsd">
    <tripinfo id="veh0" depart="0.00" departLane="-23490810#1_0" departPos="5.10" departSpeed="8.83" departDelay="0.00" arrival="56.00" arrivalLane="23490810#1_0" arrivalPos="56.51" arrivalSpeed="8.83" duration="56.00" routeLength="474.35" waitingTime="0.00" waitingCount="0" stopTime="0.00" timeLoss="1.29" rerouteNo="1" devices="tripinfo_veh0 routing_veh0" vType="veh_passenger" speedFactor="1.06" vaporized=""/>
    <tripinfo id="veh1" depart="10.00" departLane="-23490810#1_0" departPos="5.10" departSpeed="7.82" departDelay="0.00" arrival="91.00" arrivalLane="23490810#1_0" arrivalPos="56.51" arrivalSpeed="7.82" duration="81.00" routeLength="464.23" waitingTime="16.00" waitingCount="1" stopTime="0.00" timeLoss="20.43" rerouteNo="1" devices="tripinfo_veh1 routing_veh1" vType="veh_passenger" speedFactor="0.94" vaporized=""/>
    <tripinfo id="veh3" depart="30.00" departLane="-23490810#1_0" departPos="5.10" departSpeed="9.02" departDelay="0.00" arrival="107.00" arrivalLane="23490810#1_0" arrivalPos="56.51" arrivalSpeed="9.02" duration="77.00" routeLength="474.35" waitingTime="20.00" waitingCount="1" stopTime="0.00" timeLoss="23.49" rerouteNo="1" devices="tripinfo_veh3 routing_veh3" vType="veh_passenger" speedFactor="1.08" vaporized=""/>
    <tripinfo id="veh2" depart="20.00" departLane="495683152_0" departPos="5.10" departSpeed="8.42" departDelay="0.00" arrival="111.00" arrivalLane="23490810#1_0" arrivalPos="56.51" arrivalSpeed="8.42" duration="91.00" routeLength="526.03" waitingTime="21.00" waitingCount="2" stopTime="0.00" timeLoss="26.74" rerouteNo="1" devices="tripinfo_veh2 routing_veh2" vType="veh_passenger" speedFactor="1.01" vaporized=""/>
</tripinfos>
